HEADER
"PSFversion" "1.00"
"VDD!v" "VDD!"
"GND!v" "GND!"
"__NEXT_FILE__" "inverter_inv_schematic"
